LAMMPS data file via write_data, version 2 Aug 2023, timestep = 10000, units = real

100 atoms
1 atom types
99 bonds
1 bond types
98 angles
1 angle types
97 dihedrals
1 dihedral types

0 158.5 xlo xhi
0 158.5 ylo yhi
0 100 zlo zhi

Masses

1 14.02

Pair Coeffs # lj/cut

1 0.112 4.01

Bond Coeffs # harmonic

1 350 1.53

Angle Coeffs # harmonic

1 60 109.5

Dihedral Coeffs # multi/harmonic

1 1.73 -4.49 0.776 6.99 0

Atoms # molecular

1 1 1 29.363392856634096 30.275234061326625 50.54577960222686 0 0 0
2 1 1 29.628810906075184 31.740993501113216 50.94994007201328 0 0 0
3 1 1 31.154358519834002 31.963423223373574 50.95488245950617 0 0 0
4 1 1 31.633054083973445 33.32673363455819 51.44400643527102 0 0 0
5 1 1 33.1309792742712 33.51769913531762 51.2230718671834 0 0 0
6 1 1 33.6024362160392 34.97497521868888 50.93521910918588 0 0 0
7 1 1 35.06805526416783 35.30964547464239 51.179419537852816 0 0 0
8 1 1 35.39224076209814 36.894434701271834 51.159255536456634 0 0 0
9 1 1 36.934536349655716 37.05079944824274 51.2904822041018 0 0 0
10 1 1 37.18255196428655 38.53996231314432 51.48510282460243 0 0 0
11 1 1 38.68383037026815 38.997367831299805 51.50076040559673 0 0 0
12 1 1 39.083126058490976 40.5496199559972 51.753734415748625 0 0 0
13 1 1 40.50118361929703 40.85623726411076 51.159942707314336 0 0 0
14 1 1 41.06032060943276 42.33993178248882 51.43719713655721 0 0 0
15 1 1 42.47926994616171 42.743768265807226 50.84976104385857 0 0 0
16 1 1 43.03474833087493 44.11939582893796 51.41708766469984 0 0 0
17 1 1 44.4865684531052 44.64356507689921 50.94902057710344 0 0 0
18 1 1 44.91805251291198 46.026791492748885 51.59806087470009 0 0 0
19 1 1 46.406725738766674 46.46176990956581 51.01271274187484 0 0 0
20 1 1 47.15183235385088 47.89097469080025 51.41644749716431 0 0 0
21 1 1 48.62471547385967 48.440177077795326 50.91361590626008 0 0 0
22 1 1 49.32515870537914 49.78475373348231 51.461011754527334 0 0 0
23 1 1 50.51838800379631 50.64010564619668 50.74147259958752 0 0 0
24 1 1 51.55237681426664 51.544625950225964 51.63794909885716 0 0 0
25 1 1 52.400089208015785 52.765781803445485 50.78573200778238 0 0 0
26 1 1 53.43683182969354 53.73032015035472 51.552998721746405 0 0 0
27 1 1 54.11501276390774 55.15454937975427 51.07188476245062 0 0 0
28 1 1 55.634359263891824 55.57505720313186 51.37141735407261 0 0 0
29 1 1 56.21871762133811 57.16564947316613 51.16635251515741 0 0 0
30 1 1 57.71445012520518 57.782296678621954 51.49867535471908 0 0 0
31 1 1 58.35506349538168 59.27157606455064 51.40698278140683 0 0 0
32 1 1 59.946373821715454 59.82235456743356 51.46051454489673 0 0 0
33 1 1 60.61530137913641 61.3730315390839 51.55993862381171 0 0 0
34 1 1 62.17265803819554 61.84891693642782 51.351824825275735 0 0 0
35 1 1 62.7422822420241 63.33317455334096 51.6317188193354 0 0 0
36 1 1 64.20089420963275 63.964584382691505 51.08182446667245 0 0 0
37 1 1 64.88390103085733 65.38173219372045 51.67019540018978 0 0 0
38 1 1 66.18596824529682 66.17399607792716 50.96593269972283 0 0 0
39 1 1 67.20015519617512 67.29185530986932 51.677523023703195 0 0 0
40 1 1 68.18950721227056 68.29130051216318 50.80926427971344 0 0 0
41 1 1 69.39505029996121 69.23971096805141 51.42775574884648 0 0 0
42 1 1 70.10519464158617 70.68725127263228 50.93806675629943 0 0 0
43 1 1 71.59158392009688 71.29653771582261 51.4539553521125 0 0 0
44 1 1 72.26097100761439 72.79602077358183 51.08482233571712 0 0 0
45 1 1 73.81189202161629 73.53178427497205 51.04181700384204 0 0 0
46 1 1 74.16554218422131 75.14733119053295 50.86058454147929 0 0 0
47 1 1 75.77114879280039 75.69939368750495 50.65325439683166 0 0 0
48 1 1 76.40981954233936 77.21988464320194 50.86251516688027 0 0 0
49 1 1 77.94459274527136 77.79397129992647 50.62744056830589 0 0 0
50 1 1 78.63448100232213 79.19483064810183 51.14237049207423 0 0 0
51 1 1 80.10623920624087 79.8645028268315 50.79472732380599 0 0 0
52 1 1 80.8091618291362 81.24442744931562 51.44915287873458 0 0 0
53 1 1 81.99404688332388 82.15722888483393 50.620656396687274 0 0 0
54 1 1 82.89458522134197 83.54884860605418 51.1381545907925 0 0 0
55 1 1 84.04565841114568 84.42228996921759 50.35504488195703 0 0 0
56 1 1 85.12245245208462 85.47475371217203 51.07114037745811 0 0 0
57 1 1 86.26384562892417 86.42069679531014 50.34714088464028 0 0 0
58 1 1 87.31354374261669 87.57399396633357 51.065618034075946 0 0 0
59 1 1 88.47410619500072 88.59062420274144 50.33913185670095 0 0 0
60 1 1 89.66324811148527 89.5365979927385 51.09401421605801 0 0 0
61 1 1 90.58833866354284 90.75971564594064 50.46044440068023 0 0 0
62 1 1 92.00742512870926 91.55773334004746 51.106244907298255 0 0 0
63 1 1 92.55971589224728 93.09238388005365 50.75912191664579 0 0 0
64 1 1 94.13003407641953 93.71906742081329 51.17791904092607 0 0 0
65 1 1 94.66861929495094 95.25733328668574 50.79267471385686 0 0 0
66 1 1 96.07235185002163 96.04294268853239 51.30109828412364 0 0 0
67 1 1 96.92197121497333 97.46058572448658 50.833443050878 0 0 0
68 1 1 98.3898611192691 98.06876289442341 51.32220923826089 0 0 0
69 1 1 99.05706599269345 99.53777942185762 50.80213775032831 0 0 0
70 1 1 100.5629789935879 100.21430614431827 51.26080839490635 0 0 0
71 1 1 101.07659479071617 101.67810970026386 50.853541567596196 0 0 0
72 1 1 102.56033329443825 102.29735873670337 51.10884636140343 0 0 0
73 1 1 102.93949251174566 103.91249371258067 50.848006276753 0 0 0
74 1 1 104.43328726515864 104.63838091339693 51.111264420222696 0 0 0
75 1 1 104.80077457785582 106.2151837277523 50.97853337434237 0 0 0
76 1 1 106.34840372709391 106.73073327717316 50.959026383740756 0 0 0
77 1 1 106.85150055662892 108.2467632169798 51.1427781185265 0 0 0
78 1 1 108.3361430298049 108.80407104396363 51.09813504781406 0 0 0
79 1 1 108.89759066930598 110.2884878462547 51.39897435951428 0 0 0
80 1 1 110.30578661435844 110.96556270860546 50.81143931126092 0 0 0
81 1 1 110.81043331805813 112.41909174624469 51.30871772276185 0 0 0
82 1 1 112.27309364749044 113.0673108284151 51.14450170442088 0 0 0
83 1 1 112.58680373629997 114.63887188864315 51.00683681534887 0 0 0
84 1 1 114.06411562551267 115.39657066733957 51.26486555195014 0 0 0
85 1 1 114.57265928616627 116.94111591049453 50.861126305853496 0 0 0
86 1 1 116.08042615506777 117.33411738425022 51.35907355246292 0 0 0
87 1 1 116.64617994647908 118.75267831311061 50.87850300366226 0 0 0
88 1 1 117.88290038424581 119.23396546270455 51.53374318745797 0 0 0
89 1 1 118.45402072250752 120.51084849762658 50.961595491015665 0 0 0
90 1 1 119.77112575906007 121.13552869616579 51.56799420244861 0 0 0
91 1 1 120.26513497250036 122.40535815092584 50.79207603275813 0 0 0
92 1 1 121.58800487089613 123.06434291508828 51.13336933216474 0 0 0
93 1 1 122.06567651000975 124.37003259843395 50.596386496779736 0 0 0
94 1 1 123.55182127600672 124.65470151988272 50.97567307019943 0 0 0
95 1 1 123.90995879101784 126.14579368447649 50.59667584668405 0 0 0
96 1 1 125.16945169216464 126.61655530171292 51.42993801514 0 0 0
97 1 1 125.91307725115392 127.89105719951436 50.90148894871243 0 0 0
98 1 1 126.84988199990106 128.65222500223499 51.82835859742461 0 0 0
99 1 1 127.70804206514437 129.54509130859506 51.030239849665115 0 0 0
100 1 1 128.4227915826896 130.72022540615677 51.81641200263439 0 0 0

Velocities

1 -0.010755474356112167 0.008339904656175874 -0.0069586790621029345
2 0.005164649606537334 -0.003127055770390558 0.0007835412437333293
3 0.004337319786681695 0.0072245330142613595 -0.003971342169475117
4 0.0014162245328198653 -0.008565896573647865 -0.0010772259285963572
5 0.0010418955465570133 0.00258641297996605 -0.006424368576616814
6 0.0008524124838784884 -0.005987364774489276 -0.0024142345302620655
7 -0.0001134613695224797 -0.0007601837695612626 -0.0027790331301826617
8 0.0017535805725344504 0.0016793520917771619 0.004378705497058443
9 0.001461102166945656 0.0014433646158837695 0.007475187297070953
10 0.009811469120351078 0.004719498425299194 0.00018167193216780887
11 -0.0042801152422600975 0.001653623618688938 0.014161396981677959
12 0.006211018733474058 0.004024663605743306 -0.008702436225221299
13 0.0012337675411179874 0.0037740036093656345 0.0031920818030906142
14 0.005768905286069572 -0.0011918909517267084 0.0018114004876797886
15 -0.0017100244059224325 0.00015226426464798716 0.010622676540677996
16 0.002915476315785654 -0.00021309531742913545 0.004947449465145819
17 0.0027573055596398586 0.0014829878366039739 0.0032598656197791037
18 0.0016996442777107912 0.008529288983446239 0.011574995217969342
19 0.00036325874268398287 0.002175797067325748 -0.008185172086731406
20 -0.003072950787212231 0.01074379239902467 0.0009737708685239629
21 0.0015086428229102722 -0.0007099198048623376 0.004590836699286283
22 0.006906443765723342 -5.482811845872746e-05 -0.005681518524288299
23 -0.0028698570011304794 0.00810976352479645 -0.00891797962040185
24 0.006240899692049044 -0.0071965147410266465 0.004921417882296466
25 -0.0013924178749068889 -0.0022987635816978155 0.0044154588559733796
26 0.0122565801583995 0.006921862039406002 -0.008799501203081369
27 -0.0015527664469171616 -0.003834981835916404 0.003265479122338277
28 -0.005283583673290465 -0.0002554996018282272 -0.001693920108952177
29 0.0007940006106855553 0.0034953985121489242 -0.005588503591770138
30 -0.000923367225216565 -0.0038758194499511887 -0.002255800854608813
31 0.005097441229363504 0.0006762239785573112 0.004725391290637511
32 -0.0031284903042834815 0.008850086556234935 0.0009344385846477487
33 -0.0037142144261960008 -0.004290411041270221 -0.0014067334790927304
34 0.011677492727505472 -0.0061578829242074 0.007154398370185368
35 -0.005076391725518807 0.0024744197683740903 -0.010345803281036103
36 -0.0013131427755030303 0.004728426696796618 0.00892485719071238
37 -0.005080570105586046 0.0032396029627944044 -0.0038597785499856494
38 -0.0030283522489764057 -0.0013736037104690548 0.004437066800327681
39 0.0005936091540379319 6.545881661252587e-05 0.0005404309281228196
40 -0.0018773927094109658 -0.0018390246509778453 -0.007041187100383716
41 -0.0003118898073745061 0.0016418282632022147 -0.0014404871230317454
42 -0.0053708010474370245 -0.00808620774092672 0.004101558496946492
43 0.002118567471721547 -0.005491290508953592 0.0019602157921194637
44 -0.004535217827417023 0.0013608254452370375 -0.003772782567511652
45 0.0006461577029292093 0.0015904421146143604 -0.0029881283638799622
46 -0.013429706708517624 -0.0004985529613732268 -0.0035245853588712485
47 0.004338382499180236 -0.005683304457281249 0.008686081593599031
48 -0.0102427210455816 -0.002481485074422956 0.002317763229173389
49 0.009383951227332248 -0.012662852938993937 0.00030350605939729485
50 -0.00022645680716487063 -0.0038685409026072 0.0014087449929870962
51 -0.00011410674304109187 0.00365045721224125 0.008409684994040312
52 0.0008637766789988807 -0.0019147671830405657 -0.003875943502006209
53 -0.0007205551238263718 0.0022631331411660733 -0.00019497374568523424
54 0.003951269471926348 -0.0047268657465223095 0.007213261458875582
55 8.835311583733559e-05 0.0010280795383122703 -0.011231376065581658
56 0.00021007940078429004 0.014795043563099311 -0.007134096970417614
57 6.652366831965914e-05 0.0033990947907594766 0.005638300042960148
58 -0.0020624979831937113 -0.0012126180647295 0.002534751548063436
59 -0.0013494786035117769 -0.003205966140967843 -0.008132409816591192
60 -0.0017630770318542459 -0.005053157572313356 -0.004475811567332247
61 -0.0023243772992145835 -0.007045823556373126 -0.004697380058434106
62 -0.0018270357054492954 -0.00292398737891357 0.0020617617438362526
63 0.009242167167794938 0.002026426136349023 -0.0048707399695026325
64 0.001837853880527267 -0.004564920236878778 0.00976156818123386
65 0.008391668927379027 0.0005134553755076791 -0.001613569070202186
66 0.0022452722183323166 -0.007832447816776422 0.005101967557022121
67 -0.008329358454140711 0.008863188077814005 -0.0015111962811898874
68 0.0014033346945367964 -0.006133616910533434 -0.00025343565310099835
69 0.0039843689960202 -0.002379168975107541 -0.002735887435448521
70 -0.004323322896420302 -0.011396576184014767 0.0011057050529631016
71 0.003369101769190569 0.0037775232869827267 0.0006815771742583654
72 0.004179051164633967 0.0018598730000095923 0.008404736728714127
73 0.007782486616864598 -0.0002908382929110024 -0.0038094528674549348
74 0.0056416204294372175 0.007396862110217368 0.0031901531777325347
75 0.002181920362009565 -0.0019790993531712065 -0.0020285369703782856
76 0.0021036820103183165 -0.0013692542678305376 -0.0010612374681046503
77 0.0013380131101838112 -0.011860114770821462 -0.0053912936978843615
78 -0.0032205210131112747 0.00796143016871661 0.0019286810151254218
79 -0.006899823300441607 0.0031231385246796115 -0.0009922876224364003
80 0.0012743517383119773 0.009478892095360533 0.003935472236141782
81 -0.0015786064684922675 0.003105065242342258 0.009368514302930396
82 -0.003204589931234911 -0.0032079476921880725 0.002375885979403823
83 -0.009577029142223484 -0.003993695862731802 0.008364641791325648
84 0.003911519404311386 -0.0054545861767072166 0.00495558346972477
85 0.0035870953373442916 -0.002490397494579165 -0.0018462279588056269
86 -0.0005787810746985294 0.006311351418914118 0.009277357019012734
87 -0.0025447898492366476 0.0015566431285708073 0.0019161208685657153
88 -0.002654551918119307 0.0026081421373290907 -0.0050043910361478785
89 -0.0063776420999157955 -0.004271774448799944 -0.000943094278299026
90 -0.0012552438720285584 -0.007339590256544399 0.0044147380915677764
91 -0.003275787993614958 0.010240109646976239 -0.0035750811476205524
92 0.0001406662655687996 -0.003101730421855441 0.0001547509149185829
93 -0.00048739739269966807 0.0038695982876733944 -0.0013903086848112026
94 -0.010759988706442786 0.00891049449551028 -0.010175190278298713
95 -0.0029040054046852734 0.0028455388535907128 -0.007569273901334725
96 -0.011742650303070623 0.010791701340795616 -0.001949716912234474
97 -0.0018290558357604183 -0.008068552792802629 0.0005153183316064457
98 0.004226711418544163 -0.014271740352958235 0.005067033901555085
99 0.002089563580668183 0.00596107139699897 0.012599824043015748
100 -0.0063305798403427765 0.0031074214191488224 0.0007490799646203831

Bonds

1 1 1 2
2 1 2 3
3 1 3 4
4 1 4 5
5 1 5 6
6 1 6 7
7 1 7 8
8 1 8 9
9 1 9 10
10 1 10 11
11 1 11 12
12 1 12 13
13 1 13 14
14 1 14 15
15 1 15 16
16 1 16 17
17 1 17 18
18 1 18 19
19 1 19 20
20 1 20 21
21 1 21 22
22 1 22 23
23 1 23 24
24 1 24 25
25 1 25 26
26 1 26 27
27 1 27 28
28 1 28 29
29 1 29 30
30 1 30 31
31 1 31 32
32 1 32 33
33 1 33 34
34 1 34 35
35 1 35 36
36 1 36 37
37 1 37 38
38 1 38 39
39 1 39 40
40 1 40 41
41 1 41 42
42 1 42 43
43 1 43 44
44 1 44 45
45 1 45 46
46 1 46 47
47 1 47 48
48 1 48 49
49 1 49 50
50 1 50 51
51 1 51 52
52 1 52 53
53 1 53 54
54 1 54 55
55 1 55 56
56 1 56 57
57 1 57 58
58 1 58 59
59 1 59 60
60 1 60 61
61 1 61 62
62 1 62 63
63 1 63 64
64 1 64 65
65 1 65 66
66 1 66 67
67 1 67 68
68 1 68 69
69 1 69 70
70 1 70 71
71 1 71 72
72 1 72 73
73 1 73 74
74 1 74 75
75 1 75 76
76 1 76 77
77 1 77 78
78 1 78 79
79 1 79 80
80 1 80 81
81 1 81 82
82 1 82 83
83 1 83 84
84 1 84 85
85 1 85 86
86 1 86 87
87 1 87 88
88 1 88 89
89 1 89 90
90 1 90 91
91 1 91 92
92 1 92 93
93 1 93 94
94 1 94 95
95 1 95 96
96 1 96 97
97 1 97 98
98 1 98 99
99 1 99 100

Angles

1 1 1 2 3
2 1 2 3 4
3 1 3 4 5
4 1 4 5 6
5 1 5 6 7
6 1 6 7 8
7 1 7 8 9
8 1 8 9 10
9 1 9 10 11
10 1 10 11 12
11 1 11 12 13
12 1 12 13 14
13 1 13 14 15
14 1 14 15 16
15 1 15 16 17
16 1 16 17 18
17 1 17 18 19
18 1 18 19 20
19 1 19 20 21
20 1 20 21 22
21 1 21 22 23
22 1 22 23 24
23 1 23 24 25
24 1 24 25 26
25 1 25 26 27
26 1 26 27 28
27 1 27 28 29
28 1 28 29 30
29 1 29 30 31
30 1 30 31 32
31 1 31 32 33
32 1 32 33 34
33 1 33 34 35
34 1 34 35 36
35 1 35 36 37
36 1 36 37 38
37 1 37 38 39
38 1 38 39 40
39 1 39 40 41
40 1 40 41 42
41 1 41 42 43
42 1 42 43 44
43 1 43 44 45
44 1 44 45 46
45 1 45 46 47
46 1 46 47 48
47 1 47 48 49
48 1 48 49 50
49 1 49 50 51
50 1 50 51 52
51 1 51 52 53
52 1 52 53 54
53 1 53 54 55
54 1 54 55 56
55 1 55 56 57
56 1 56 57 58
57 1 57 58 59
58 1 58 59 60
59 1 59 60 61
60 1 60 61 62
61 1 61 62 63
62 1 62 63 64
63 1 63 64 65
64 1 64 65 66
65 1 65 66 67
66 1 66 67 68
67 1 67 68 69
68 1 68 69 70
69 1 69 70 71
70 1 70 71 72
71 1 71 72 73
72 1 72 73 74
73 1 73 74 75
74 1 74 75 76
75 1 75 76 77
76 1 76 77 78
77 1 77 78 79
78 1 78 79 80
79 1 79 80 81
80 1 80 81 82
81 1 81 82 83
82 1 82 83 84
83 1 83 84 85
84 1 84 85 86
85 1 85 86 87
86 1 86 87 88
87 1 87 88 89
88 1 88 89 90
89 1 89 90 91
90 1 90 91 92
91 1 91 92 93
92 1 92 93 94
93 1 93 94 95
94 1 94 95 96
95 1 95 96 97
96 1 96 97 98
97 1 97 98 99
98 1 98 99 100

Dihedrals

1 1 1 2 3 4
2 1 2 3 4 5
3 1 3 4 5 6
4 1 4 5 6 7
5 1 5 6 7 8
6 1 6 7 8 9
7 1 7 8 9 10
8 1 8 9 10 11
9 1 9 10 11 12
10 1 10 11 12 13
11 1 11 12 13 14
12 1 12 13 14 15
13 1 13 14 15 16
14 1 14 15 16 17
15 1 15 16 17 18
16 1 16 17 18 19
17 1 17 18 19 20
18 1 18 19 20 21
19 1 19 20 21 22
20 1 20 21 22 23
21 1 21 22 23 24
22 1 22 23 24 25
23 1 23 24 25 26
24 1 24 25 26 27
25 1 25 26 27 28
26 1 26 27 28 29
27 1 27 28 29 30
28 1 28 29 30 31
29 1 29 30 31 32
30 1 30 31 32 33
31 1 31 32 33 34
32 1 32 33 34 35
33 1 33 34 35 36
34 1 34 35 36 37
35 1 35 36 37 38
36 1 36 37 38 39
37 1 37 38 39 40
38 1 38 39 40 41
39 1 39 40 41 42
40 1 40 41 42 43
41 1 41 42 43 44
42 1 42 43 44 45
43 1 43 44 45 46
44 1 44 45 46 47
45 1 45 46 47 48
46 1 46 47 48 49
47 1 47 48 49 50
48 1 48 49 50 51
49 1 49 50 51 52
50 1 50 51 52 53
51 1 51 52 53 54
52 1 52 53 54 55
53 1 53 54 55 56
54 1 54 55 56 57
55 1 55 56 57 58
56 1 56 57 58 59
57 1 57 58 59 60
58 1 58 59 60 61
59 1 59 60 61 62
60 1 60 61 62 63
61 1 61 62 63 64
62 1 62 63 64 65
63 1 63 64 65 66
64 1 64 65 66 67
65 1 65 66 67 68
66 1 66 67 68 69
67 1 67 68 69 70
68 1 68 69 70 71
69 1 69 70 71 72
70 1 70 71 72 73
71 1 71 72 73 74
72 1 72 73 74 75
73 1 73 74 75 76
74 1 74 75 76 77
75 1 75 76 77 78
76 1 76 77 78 79
77 1 77 78 79 80
78 1 78 79 80 81
79 1 79 80 81 82
80 1 80 81 82 83
81 1 81 82 83 84
82 1 82 83 84 85
83 1 83 84 85 86
84 1 84 85 86 87
85 1 85 86 87 88
86 1 86 87 88 89
87 1 87 88 89 90
88 1 88 89 90 91
89 1 89 90 91 92
90 1 90 91 92 93
91 1 91 92 93 94
92 1 92 93 94 95
93 1 93 94 95 96
94 1 94 95 96 97
95 1 95 96 97 98
96 1 96 97 98 99
97 1 97 98 99 100
